unknown system                          
           1
     7.901661    0.000000    0.000000
     0.000000    9.974219    0.000000
     0.000000    0.000000    7.944693
   Si   Cr   Mn   Fe   Ni
  32   5   3   5   3
Direct configuration=     1
   0.45580168  0.12674363  0.77077609
   0.55147728  0.37306305  0.27307048
   0.46096786  0.37254934  0.72587043
   0.54827424  0.12913754  0.22604475
   0.77219584  0.37226351  0.04985728
   0.72880761  0.62659326  0.54839861
   0.27570667  0.62895432  0.45346636
   0.22487276  0.36838417  0.95298057
   0.22598011  0.63115101  0.95237495
   0.27964443  0.36926005  0.45064868
   0.72537300  0.37364768  0.54964141
   0.77290530  0.62869400  0.05102108
   0.27806906  0.87093818  0.04727148
   0.22733859  0.12750439  0.55267958
   0.77145865  0.12658585  0.45242683
   0.72460352  0.87251122  0.94413068
   0.72179079  0.12766541  0.94090092
   0.77583492  0.87164692  0.44856266
   0.22224483  0.87074282  0.55709044
   0.27997542  0.12821391  0.05408063
   0.55212105  0.87235512  0.22152858
   0.45953887  0.62943318  0.72586086
   0.55017929  0.62905286  0.27306104
   0.45123785  0.87493171  0.77421905
   0.03754429  0.62798620  0.22628408
   0.95008625  0.87354030  0.72393627
   0.04223694  0.87151260  0.27748767
   0.94927297  0.62851640  0.77482896
   0.04103412  0.37317478  0.22266702
   0.94328094  0.12462453  0.72248609
   0.05183048  0.12444630  0.28001814
   0.94492531  0.37029316  0.77734842
   0.81365934  0.00271908  0.18024514
   0.00070228  0.20977540  0.00231263
   0.00242696  0.29159304  0.49908331
   0.18451689  0.00313213  0.81841039
   0.49927031  0.78558733  0.49821735
   0.00285312  0.71109478  0.49902942
   0.68763499  0.50200560  0.81731635
   0.49888164  0.28864652  0.99903050
   0.80781162  0.50054842  0.31200217
   0.50029924  0.22083204  0.49892863
   0.49948840  0.71426419  0.99894294
   0.68547829  0.99583347  0.68296849
   0.00272567  0.78096450  0.00180156
   0.18695108  0.49997025  0.68696738
   0.31325330  0.50124764  0.18370226
   0.31743594  0.99566822  0.32002140
