unknown system                          
           1
     7.883733    0.000000    0.000000
     0.000000    9.979009    0.000000
     0.000000    0.000000    7.946671
   Si   Cr   Mn   Fe   Ni
  32   4   4   4   4
Direct configuration=     1
   0.44854254  0.12931456  0.77111473
   0.54362747  0.37139231  0.27622915
   0.45673343  0.37304910  0.72535113
   0.54979607  0.12966166  0.22732734
   0.76892913  0.37444553  0.05414591
   0.72593567  0.62323220  0.55081142
   0.27762013  0.62482005  0.45712942
   0.22990742  0.37250005  0.94483135
   0.22543066  0.63061609  0.94732268
   0.27582168  0.36850147  0.45967710
   0.72482945  0.37059722  0.54957164
   0.77218915  0.62873100  0.05032740
   0.27597881  0.87005930  0.04727377
   0.22738059  0.13058662  0.55667645
   0.77395099  0.13225758  0.44449694
   0.72246363  0.87023115  0.94874323
   0.71827675  0.12814833  0.94667018
   0.77724335  0.87360481  0.44648298
   0.22463283  0.87401410  0.55419821
   0.27995085  0.12784377  0.04762650
   0.55034178  0.87297862  0.22272733
   0.45471175  0.62520168  0.72855211
   0.54637262  0.62701470  0.27210984
   0.44734562  0.87352057  0.77540322
   0.04006982  0.62750458  0.22144745
   0.95690211  0.87130991  0.72450922
   0.04927500  0.87303711  0.27579203
   0.95166002  0.62633154  0.77514473
   0.04218518  0.37354461  0.23112860
   0.95746770  0.12695210  0.72083842
   0.04871599  0.12568505  0.28186769
   0.94993094  0.37583664  0.76871705
   0.00244030  0.70882837  0.49764914
   0.99993770  0.78844139  0.00061076
   0.81371516  0.00418531  0.18008413
   0.50063724  0.78684054  0.49962446
   0.68803951  0.49613888  0.82017908
   0.19108471  0.00322277  0.81601300
   0.00218224  0.28367811  0.49942842
   0.49964793  0.21841806  0.49956432
   0.19077349  0.49630231  0.69264673
   0.80632212  0.49601637  0.30995012
   0.49955609  0.28308694  0.99977305
   0.49969488  0.71651798  0.99902706
   0.30969618  0.49539865  0.18041402
   0.68492583  0.00390676  0.68132064
   0.00043419  0.21250078  0.00105582
   0.31669328  0.00399276  0.31841404
