unknown system                          
           1
     7.877941    0.000000    0.000000
     0.000000    9.997391    0.000000
     0.000000    0.000000    7.946251
   Si   Cr   Mn   Fe   Ni
  32   4   4   4   4
Direct configuration=     1
   0.45809872  0.12691150  0.77763207
   0.54372891  0.37255416  0.27129352
   0.45725438  0.37105255  0.72564023
   0.55162747  0.12574842  0.22295284
   0.77403765  0.36766723  0.05646757
   0.71956469  0.63079344  0.53911904
   0.27759922  0.63150369  0.44530852
   0.22622092  0.36727672  0.96117913
   0.22599042  0.62666127  0.95843347
   0.27247814  0.37166012  0.44639001
   0.72585556  0.37195159  0.53793854
   0.76984487  0.62642881  0.05613252
   0.27822772  0.87229359  0.05307570
   0.22016061  0.13083825  0.54784900
   0.77691933  0.12787165  0.44617482
   0.72105882  0.87427167  0.94526767
   0.72640763  0.12812825  0.94697856
   0.77181495  0.87490438  0.44789584
   0.22396105  0.87319972  0.55238772
   0.27467654  0.12952228  0.05487249
   0.55194237  0.87368237  0.22407248
   0.45799662  0.63061941  0.72220923
   0.54319738  0.62755814  0.27145057
   0.46057165  0.87293100  0.77142281
   0.04937816  0.62273416  0.23061046
   0.94904353  0.87447033  0.72437371
   0.04826592  0.87256128  0.27741452
   0.95035645  0.62577507  0.77864605
   0.04321509  0.37201672  0.22844537
   0.95099403  0.12821107  0.72634003
   0.04694003  0.12775122  0.27346081
   0.96100171  0.36842034  0.77599678
   0.31239178  0.99722483  0.31525523
   0.49856158  0.71354461  0.99508019
   0.49973086  0.21321789  0.50284892
   0.99844860  0.70973391  0.50528158
   0.99768517  0.21840043  0.99939716
   0.99780354  0.28786493  0.50344080
   0.50000097  0.28591250  0.99662694
   0.81720458  0.99746124  0.17892935
   0.80981770  0.50437501  0.30997716
   0.30738427  0.50120973  0.18854071
   0.49708430  0.78416575  0.50010503
   0.69293244  0.00016493  0.68474818
   0.18605175  0.99986238  0.81915520
   0.18927520  0.50444921  0.68419343
   0.99656306  0.78330358  0.00044519
   0.69063365  0.50113868  0.81854281
