unknown system                          
           1
     7.824760    0.000000    0.000000
     0.000000   10.127310    0.000000
     0.000000    0.000000    7.946573
   Si   Cr   Mn   Fe   Ni
  32   3   3   3   7
Direct configuration=     1
   0.46451621  0.12965652  0.77557675
   0.54534731  0.37100494  0.27267655
   0.45772804  0.37051783  0.72959894
   0.53070492  0.13045373  0.22643085
   0.77020917  0.37191663  0.05401130
   0.72314000  0.62540482  0.54431906
   0.27639719  0.62481180  0.45917928
   0.23068146  0.37324685  0.94966782
   0.23230844  0.62729755  0.95346989
   0.27580512  0.37111500  0.46015955
   0.72403069  0.36951784  0.54315365
   0.76872879  0.62696218  0.04874346
   0.26951466  0.87747192  0.05111975
   0.22625577  0.12731260  0.54620109
   0.77335292  0.12549251  0.44870789
   0.73235894  0.87592254  0.94650106
   0.73002710  0.13337590  0.94945971
   0.77654673  0.87106170  0.45543033
   0.22204242  0.87061302  0.54367027
   0.26951070  0.13292247  0.04630816
   0.53711534  0.87695480  0.23016135
   0.46175887  0.62799350  0.73261409
   0.54292286  0.62729180  0.27004416
   0.45918667  0.87724797  0.77179859
   0.03911453  0.62393575  0.22541013
   0.95648697  0.87070696  0.72891009
   0.03924416  0.87086212  0.27046088
   0.96506839  0.62353136  0.77352903
   0.03985261  0.37456437  0.22551081
   0.95591973  0.12933789  0.73317445
   0.03798673  0.12801378  0.26370886
   0.96612159  0.37394438  0.76942057
   0.49776002  0.78569373  0.49978206
   0.00259358  0.77807365  0.00037404
   0.69989045  0.00178405  0.68706860
   0.80116837  0.49810712  0.30986894
   0.49896124  0.27906584  0.00152157
   0.49885656  0.21341095  0.50002467
   0.00213190  0.22725402  0.99967594
   0.29410078  0.00146984  0.31254287
   0.20668541  0.49940994  0.69608318
   0.30419685  0.49361826  0.19207655
   0.49936451  0.73135646  0.00228081
   0.70062087  0.49162292  0.80823452
   0.99958443  0.28370221  0.49484148
   0.99933513  0.70776556  0.49856819
   0.19277074  0.99929540  0.81588459
   0.80199413  0.99790703  0.18204363
