unknown system                          
           1
     7.917639    0.000000    0.000000
     0.000000    9.939148    0.000000
     0.000000    0.000000    7.928249
   Si   Cr   Mn   Fe   Ni
  32   4   4   4   4
Direct configuration=     1
   0.45413633  0.12578231  0.77742648
   0.54951572  0.37265150  0.27381803
   0.44612420  0.37115864  0.72685411
   0.54511064  0.12609515  0.22343934
   0.77442070  0.36736470  0.05564652
   0.72770844  0.62862252  0.54175877
   0.26998483  0.62573554  0.45210903
   0.22574216  0.37147256  0.94804120
   0.22530101  0.62373602  0.94936632
   0.27581497  0.37296447  0.45126338
   0.72377067  0.37110385  0.54140251
   0.77488037  0.62870836  0.05337715
   0.27689671  0.87431682  0.05031549
   0.22898125  0.12466604  0.55236244
   0.77497109  0.12446383  0.44911874
   0.72079839  0.87530067  0.94400486
   0.72303389  0.12893405  0.94735313
   0.77746546  0.87237041  0.44883581
   0.22237138  0.87183360  0.55294631
   0.27377949  0.13051589  0.04656764
   0.54746055  0.87529911  0.22390469
   0.44409114  0.62614325  0.72535013
   0.55066242  0.62370552  0.27406345
   0.45105564  0.87567905  0.77639164
   0.04910357  0.62531472  0.23081881
   0.94849393  0.87504138  0.72440751
   0.05298105  0.87348290  0.27911947
   0.95878788  0.62742453  0.77376968
   0.04813694  0.37399813  0.22371629
   0.94773967  0.12317533  0.73213580
   0.05222749  0.12503419  0.27138345
   0.96057067  0.37163420  0.77885591
   0.81584723  0.99765932  0.18448615
   0.50092226  0.71222574  0.99853550
   0.50173290  0.21199026  0.50171207
   0.31088346  0.50190118  0.18912516
   0.99809511  0.21698898  0.00061800
   0.18812057  0.50253964  0.68644961
   0.49922270  0.28778124  0.99989127
   0.69074951  0.99872310  0.68303982
   0.99731736  0.71582148  0.50353964
   0.18649622  0.99789713  0.80987754
   0.81365547  0.50399675  0.31120721
   0.30712721  0.99802410  0.31427329
   0.68999763  0.50442814  0.81148386
   0.49905424  0.78784248  0.50183744
   0.99924992  0.28996438  0.50314254
   0.99940956  0.78848686  0.00085681
