unknown system                          
           1
     7.914226    0.000000    0.000000
     0.000000    9.897646    0.000000
     0.000000    0.000000    7.910591
   Si   Cr   Mn   Fe   Co
  32   4   4   4   4
Direct configuration=     1
   0.44918943  0.12740313  0.77817451
   0.54752042  0.37247396  0.27605238
   0.44978898  0.37425874  0.72718319
   0.54844736  0.12515860  0.22677036
   0.77444871  0.37089431  0.05020271
   0.72602975  0.62840457  0.54916718
   0.27587061  0.62887058  0.44757982
   0.22457584  0.37081449  0.94693290
   0.22342435  0.63028693  0.94601621
   0.27544381  0.36978035  0.44693963
   0.72757555  0.37010799  0.55152480
   0.77619640  0.63021748  0.05123072
   0.27521855  0.87077929  0.05263383
   0.22547880  0.12909442  0.55164843
   0.77848959  0.13009212  0.44545902
   0.72473003  0.87073391  0.94566975
   0.72238813  0.12952243  0.94509800
   0.77807005  0.87102294  0.44695047
   0.22628917  0.87232445  0.55111609
   0.27704285  0.12894048  0.05603072
   0.54863940  0.87393989  0.22372246
   0.44874687  0.62663373  0.72477407
   0.55113095  0.62580106  0.27620007
   0.44902141  0.87345292  0.77672497
   0.04778503  0.62654634  0.22556503
   0.94887054  0.87435606  0.72721578
   0.05104021  0.87381987  0.27451232
   0.95090292  0.62729934  0.77681300
   0.04835729  0.37257685  0.22792684
   0.94907430  0.12727080  0.72393640
   0.05196017  0.12644432  0.27758989
   0.94983952  0.37277771  0.77510259
   0.81589937  0.00151559  0.18137960
   0.31251978  0.49881749  0.18294144
   0.68508216  0.00224468  0.68051778
   0.18363813  0.49815222  0.68112247
   0.18290167  0.00203944  0.81866892
   0.68633312  0.49958125  0.81489597
   0.50180183  0.71215198  0.00052462
   0.49960189  0.78705330  0.49771784
   0.00110455  0.28351858  0.50047463
   0.50145554  0.28452299  0.00252613
   0.31134658  0.00024815  0.31573209
   0.00074684  0.78439269  0.00150782
   0.00094467  0.21577417  0.00186305
   0.00104366  0.71496736  0.50094483
   0.81306464  0.49680642  0.31527667
   0.50092857  0.21611361  0.50144201
