unknown system                          
           1
     7.915898    0.000000    7.932371
     7.915898    0.000000   -7.932371
     0.000000    9.950638    0.000000
   Si   Cr   Mn   Fe   Ni
  64   8   8   8   8
Direct configuration=     1
   0.35853737  0.91354776  0.63121953
   0.85899836  0.41152737  0.62653474
   0.09320795  0.13286853  0.36829043
   0.59228913  0.63468382  0.36732437
   0.11451930  0.33689259  0.12484235
   0.61116936  0.83855834  0.12935808
   0.40843564  0.13600365  0.37381874
   0.90980346  0.63835130  0.37322552
   0.09429931  0.36504868  0.36767314
   0.59064492  0.86883148  0.37067464
   0.38367114  0.16086809  0.12601538
   0.88826609  0.66117378  0.12917281
   0.08920373  0.13067451  0.63129985
   0.58894166  0.63468230  0.62608558
   0.36055072  0.91729571  0.37000784
   0.86022241  0.41583000  0.36761970
   0.13421996  0.58676742  0.36918186
   0.63581190  0.08952360  0.37212944
   0.41650903  0.35825112  0.63042444
   0.91799771  0.86498742  0.62724803
   0.41452707  0.35754418  0.36938177
   0.91541516  0.86051257  0.37197070
   0.13755403  0.58716902  0.62782621
   0.63541844  0.09090373  0.62647820
   0.38457537  0.83504001  0.87310430
   0.89060330  0.33353642  0.87570082
   0.16180522  0.11053358  0.12569355
   0.66629785  0.61180836  0.13121618
   0.16046227  0.11081208  0.87243156
   0.66364651  0.61050912  0.87238501
   0.38779169  0.83928153  0.12659928
   0.89290938  0.33690226  0.12555128
   0.11099149  0.66295980  0.12855634
   0.60681170  0.16408070  0.12797927
   0.34039721  0.38797804  0.87267488
   0.83532780  0.88732118  0.87229234
   0.38403338  0.16417571  0.87436605
   0.88895474  0.66453472  0.87344197
   0.08743750  0.36310133  0.62700715
   0.58553373  0.86769793  0.62480841
   0.41148909  0.13705733  0.62540662
   0.91135894  0.63965185  0.62350592
   0.11445733  0.33339557  0.87608250
   0.60855529  0.83619316  0.87387112
   0.33835792  0.38790861  0.12875152
   0.83659703  0.88417554  0.13382353
   0.11482379  0.66706594  0.87411471
   0.60602318  0.16569230  0.87260690
   0.63497572  0.40949340  0.62554388
   0.13878778  0.91082484  0.62697041
   0.84008335  0.11394774  0.87293383
   0.33862448  0.61250465  0.87545746
   0.65765239  0.38985014  0.87480705
   0.16285820  0.88960045  0.87450745
   0.86461683  0.09189124  0.62596980
   0.36608182  0.59095113  0.63076875
   0.86593252  0.08921242  0.37280410
   0.36687048  0.58560490  0.37270174
   0.66007026  0.39204381  0.12451434
   0.16332025  0.88756548  0.12777189
   0.13734762  0.91189875  0.37426363
   0.63605193  0.40927606  0.37358218
   0.33838255  0.61140855  0.12763393
   0.84095243  0.11268643  0.12639175
   0.75313838  0.94031590  0.50177880
   0.25224294  0.74723811  0.29134645
   0.99699931  0.81656629  0.99758824
   0.50411642  0.68308433  0.99999396
   0.81708511  0.49738346  0.99517519
   0.24683377  0.25159574  0.71108350
   0.49987058  0.00043706  0.78710265
   0.06511951  0.74683888  0.50417774
   0.50018940  0.49746050  0.22071394
   0.24817606  0.06312415  0.50252388
   0.18320520  0.49955455  0.99666634
   0.75122871  0.55662834  0.50308440
   0.50018499  0.00375112  0.21551411
   0.74848615  0.75180885  0.28773091
   0.99687361  0.18706063  0.99993301
   0.31274644  0.00106584  0.99800479
   0.56149210  0.25080247  0.49814548
   0.99992462  0.49553906  0.21765588
   0.50123001  0.50105359  0.77955855
   0.99422491  0.99996036  0.78543954
   0.24740444  0.74511875  0.71488477
   0.24858086  0.24962001  0.28322377
   0.99685665  0.00238525  0.21539874
   0.50190078  0.31313682  0.00232638
   0.74841058  0.75119680  0.70839321
   0.99894248  0.49833489  0.78563377
   0.43491088  0.75026792  0.50269206
   0.94134424  0.25594518  0.49499812
   0.25304934  0.43376791  0.50458015
   0.74888720  0.25175173  0.71760844
   0.75020429  0.25017978  0.28287443
   0.68407591  0.00435565  0.99777205
