unknown system                          
           1
     7.971526    0.000000    0.000000
     0.000000    9.926686    0.000000
     0.000000    0.000000    7.933719
   Si   Cr   Mn   Fe   Ni
  32   5   5   3   3
Direct configuration=     1
   0.44644850  0.12486008  0.77758248
   0.55719987  0.37531657  0.27638238
   0.44573209  0.37495385  0.72477763
   0.55645484  0.12514343  0.22225988
   0.77704330  0.37110855  0.05142621
   0.72708271  0.62602335  0.55334338
   0.26967348  0.62781313  0.45314470
   0.22321006  0.37054611  0.94582111
   0.22685935  0.62564121  0.94874686
   0.27523024  0.37374983  0.45566303
   0.72237153  0.37409678  0.55073113
   0.77229187  0.62519725  0.04665318
   0.28066636  0.86992656  0.05655995
   0.22362907  0.12706558  0.55427540
   0.77394746  0.12565270  0.44634436
   0.72070197  0.87169246  0.94416590
   0.72588882  0.12834727  0.94883263
   0.77855011  0.87078128  0.44434439
   0.21966204  0.86954010  0.55391359
   0.27378092  0.12966552  0.05123169
   0.55315779  0.87425798  0.22070372
   0.45260844  0.62498104  0.72881141
   0.55219025  0.62580739  0.27386178
   0.44763657  0.87418706  0.77750705
   0.05125496  0.62756401  0.22639495
   0.94485696  0.87207149  0.71971203
   0.05325569  0.87282629  0.27837627
   0.94877244  0.62497544  0.77095844
   0.04821232  0.37438750  0.22176656
   0.94700639  0.12524596  0.72788654
   0.05249362  0.12568239  0.27075536
   0.95101261  0.37458307  0.77650280
   0.31355061  0.50189260  0.18866640
   0.17987446  0.99572993  0.81893579
   0.31632504  0.99994230  0.31871256
   0.50169887  0.28850166  0.99922113
   0.50009082  0.21042657  0.50021593
   0.81761099  0.50663872  0.31524138
   0.68875490  0.49992309  0.81131634
   0.99616167  0.71484555  0.49900468
   0.82050453  0.99702445  0.18080186
   0.68456953  0.99871514  0.68123138
   0.99823702  0.21595683  0.99922817
   0.50111809  0.71587269  0.99930652
   0.18583908  0.50605661  0.69018315
   0.50139699  0.78783977  0.50025751
   0.99689484  0.28929609  0.49962465
   0.99848993  0.78764676  0.99861576
