unknown system                          
           1
     7.812114    0.000000    0.000000
     0.000000   10.122811    0.000000
     0.000000    0.000000    7.829804
   Si   Mn   Fe   Co   Ni
  32   4   4   4   4
Direct configuration=     1
   0.46685063  0.12753590  0.76450646
   0.54199363  0.37413591  0.26876010
   0.45668030  0.37523332  0.72946721
   0.53036495  0.12991792  0.23310953
   0.77168100  0.37377837  0.04335319
   0.73028865  0.62328461  0.54545814
   0.26951929  0.62453774  0.45731258
   0.23074258  0.37082988  0.94826086
   0.24322215  0.62407534  0.95960124
   0.26655445  0.36969486  0.45983179
   0.72719409  0.37484473  0.54687350
   0.77055694  0.62728780  0.04234346
   0.27842667  0.87337886  0.03789397
   0.23124017  0.12809958  0.54123717
   0.76325016  0.13064272  0.46890001
   0.74189999  0.87444570  0.97121037
   0.73379588  0.12954271  0.96892385
   0.76515627  0.87052849  0.46643492
   0.23151315  0.87256401  0.53907426
   0.27413677  0.12935579  0.03965590
   0.53373413  0.87434287  0.23142527
   0.45673063  0.62561648  0.73092106
   0.53203097  0.62302864  0.25708176
   0.46674781  0.87559587  0.76136131
   0.03807810  0.62573612  0.22667324
   0.97076718  0.87063771  0.72736965
   0.02944693  0.87494239  0.26690550
   0.95491317  0.62271884  0.76728882
   0.03348438  0.36864113  0.23073607
   0.96893573  0.12989591  0.73003170
   0.03036007  0.12608218  0.27109241
   0.95331662  0.37593085  0.77094124
   0.20458340  0.00258145  0.80037804
   0.00068627  0.71918957  0.49521540
   0.19492964  0.50002952  0.69370401
   0.69388588  0.50047190  0.80865108
   0.80069159  0.50092512  0.30371205
   0.99698669  0.27973221  0.50144624
   0.51232409  0.73011864  0.99329019
   0.50451140  0.27944842  0.99845649
   0.49669085  0.23097317  0.49650930
   0.00571896  0.22371578  0.99917704
   0.78432031  0.00508933  0.21320286
   0.29094901  0.00260317  0.29742505
   0.29323663  0.48751444  0.19549272
   0.71546997  0.00102566  0.71199656
   0.01330084  0.77300872  0.99577256
   0.49810103  0.76668967  0.49153390
