unknown system                          
           1
     7.935222    0.000000    0.000000
     0.000000    9.884480    0.000000
     0.000000    0.000000    7.927324
   Si   Cr   Mn   Fe   Ni
  32   3   7   3   3
Direct configuration=     1
   0.45168040  0.12684786  0.77900446
   0.55404904  0.37545703  0.27192815
   0.44500013  0.37494086  0.72659955
   0.55238882  0.12722719  0.21948449
   0.77665323  0.36859540  0.05350435
   0.72273741  0.63246330  0.55422637
   0.27636164  0.63157471  0.44511498
   0.22313400  0.36893808  0.94887528
   0.22427890  0.62275436  0.94768514
   0.27007951  0.37397183  0.44681036
   0.72782806  0.37309665  0.55389348
   0.77811342  0.62497935  0.05454886
   0.27717659  0.87635043  0.05293029
   0.21868473  0.12679919  0.55472392
   0.77894585  0.12648850  0.44898775
   0.72571445  0.87801081  0.94375571
   0.72526843  0.13087604  0.94395537
   0.77490546  0.86976063  0.44873396
   0.22267671  0.86996305  0.55502450
   0.27436731  0.13012172  0.05390530
   0.55563657  0.87408205  0.22733231
   0.44845849  0.62747719  0.71761550
   0.54897042  0.62666710  0.27918690
   0.44785533  0.87617015  0.76800075
   0.05609878  0.62448936  0.22857517
   0.94989967  0.87454517  0.72046245
   0.04957969  0.87400430  0.27981395
   0.94552680  0.62515481  0.77028207
   0.95080580  0.37099547  0.77593287
   0.05131619  0.12589511  0.27416798
   0.94668706  0.12588304  0.72624695
   0.04897476  0.37033858  0.22398028
   0.31774884  0.99701470  0.31856810
   0.81684750  0.50387318  0.31885976
   0.68239691  0.50139880  0.81780247
   0.31628644  0.49837883  0.18455251
   0.00016823  0.21124918  0.99937046
   0.18509308  0.99935602  0.81747984
   0.18275028  0.50400530  0.68122388
   0.68646589  0.99657944  0.68590315
   0.49782023  0.28761983  0.00070356
   0.81522677  0.99892926  0.18300762
   0.49822090  0.78453419  0.49871948
   0.00048808  0.28343391  0.50084464
   0.00142130  0.71684161  0.50041472
   0.49896343  0.21105914  0.49995735
   0.49908550  0.71299432  0.99813304
   0.00116299  0.78781299  0.99916997
