   48   48    1    2
  0.1303828E+02  0.7877941E-09  0.9997391E-09  0.7946251E-09  0.5000000E-15
  1.000000000000000E-004
  CAR 
 unknown system                          
    252      8    176
 
  0.0000000E+00  0.0000000E+00  0.0000000E+00  0.1250000E+00
    1       -6.133225     -6.118419   1.000000   1.000000
    2       -4.601810     -4.594949   1.000000   1.000000
    3       -4.549821     -4.524882   1.000000   1.000000
    4       -3.912665     -3.886295   1.000000   1.000000
    5       -3.860393     -3.855378   1.000000   1.000000
    6       -3.772913     -3.776949   1.000000   1.000000
    7       -3.703875     -3.734359   1.000000   1.000000
    8       -2.763388     -2.750772   1.000000   1.000000
    9       -2.556745     -2.532389   1.000000   1.000000
   10       -2.477468     -2.464032   1.000000   1.000000
   11       -2.341127     -2.349319   1.000000   1.000000
   12       -2.251661     -2.260067   1.000000   1.000000
   13       -2.196766     -2.198856   1.000000   1.000000
   14       -1.899022     -1.893804   1.000000   1.000000
   15       -1.821495     -1.827381   1.000000   1.000000
   16       -1.616900     -1.602370   1.000000   1.000000
   17       -1.543337     -1.530540   1.000000   1.000000
   18       -0.850311     -0.856844   1.000000   1.000000
   19       -0.743164     -0.759276   1.000000   1.000000
   20       -0.711740     -0.696626   1.000000   1.000000
   21       -0.551100     -0.541195   1.000000   1.000000
   22       -0.355865     -0.355028   1.000000   1.000000
   23        0.456963      0.459757   1.000000   1.000000
   24        0.567093      0.605792   1.000000   1.000000
   25        0.614426      0.680631   1.000000   1.000000
   26        0.713499      0.780748   1.000000   1.000000
   27        0.878115      0.912699   1.000000   1.000000
   28        0.913242      0.922179   1.000000   1.000000
   29        1.314722      1.348913   1.000000   1.000000
   30        1.428418      1.424981   1.000000   1.000000
   31        1.643966      1.719775   1.000000   1.000000
   32        1.727453      1.788285   1.000000   1.000000
   33        2.031919      2.043491   1.000000   1.000000
   34        2.136360      2.181795   1.000000   1.000000
   35        2.152221      2.198145   1.000000   1.000000
   36        2.288229      2.340840   1.000000   1.000000
   37        2.376653      2.387226   1.000000   1.000000
   38        2.474462      2.510658   1.000000   1.000000
   39        2.530299      2.570094   1.000000   1.000000
   40        2.726999      2.813602   1.000000   1.000000
   41        2.785344      2.868141   1.000000   1.000000
   42        3.231366      3.288665   1.000000   1.000000
   43        3.444076      3.468817   1.000000   1.000000
   44        3.513117      3.510231   1.000000   1.000000
   45        3.558743      3.656995   1.000000   1.000000
   46        3.722069      3.768659   1.000000   1.000000
   47        3.787286      3.789453   1.000000   1.000000
   48        3.948672      3.970952   1.000000   1.000000
   49        3.994232      3.991142   1.000000   1.000000
   50        4.085022      4.108491   1.000000   1.000000
   51        4.110578      4.143938   1.000000   1.000000
   52        4.130665      4.210546   1.000000   1.000000
   53        4.270340      4.267346   1.000000   1.000000
   54        4.309652      4.325694   1.000000   1.000000
   55        4.349207      4.429973   1.000000   1.000000
   56        4.454990      4.504534   1.000000   1.000000
   57        4.521046      4.587411   1.000000   1.000000
   58        4.558194      4.617693   1.000000   1.000000
   59        4.650803      4.687475   1.000000   1.000000
   60        4.682337      4.731166   1.000000   1.000000
   61        4.723617      4.790305   1.000000   1.000000
   62        4.769361      4.914970   1.000000   1.000000
   63        4.780686      4.944052   1.000000   1.000000
   64        4.828432      4.953694   1.000000   1.000000
   65        4.889753      5.003201   1.000000   1.000000
   66        4.954857      5.057400   1.000000   1.000000
   67        5.019280      5.072223   1.000000   1.000000
   68        5.037045      5.104817   1.000000   1.000000
   69        5.138391      5.169568   1.000000   1.000000
   70        5.221110      5.183671   1.000000   1.000000
   71        5.227182      5.223786   1.000000   1.000000
   72        5.261738      5.229728   1.000000   1.000000
   73        5.294993      5.304241   1.000000   1.000000
   74        5.360032      5.324494   1.000000   1.000000
   75        5.413059      5.430710   1.000000   1.000000
   76        5.419596      5.445391   1.000000   1.000000
   77        5.487867      5.467046   1.000000   1.000000
   78        5.539374      5.550871   1.000000   1.000000
   79        5.629017      5.560712   1.000000   1.000000
   80        5.655669      5.596329   1.000000   1.000000
   81        5.683941      5.703411   1.000000   1.000000
   82        5.747106      5.713202   1.000000   1.000000
   83        5.767002      5.812664   1.000000   1.000000
   84        5.845604      5.849091   1.000000   1.000000
   85        5.888989      5.929458   1.000000   1.000000
   86        5.953728      5.941473   1.000000   1.000000
   87        6.003526      6.020477   1.000000   1.000000
   88        6.103468      6.052636   1.000000   1.000000
   89        6.150167      6.112195   1.000000   1.000000
   90        6.165323      6.168429   1.000000   1.000000
   91        6.225124      6.176445   1.000000   1.000000
   92        6.235611      6.249741   1.000000   1.000000
   93        6.306554      6.268629   1.000000   1.000000
   94        6.351157      6.300333   1.000000   1.000000
   95        6.428716      6.364431   1.000000   1.000000
   96        6.455820      6.464114   1.000000   1.000000
   97        6.561464      6.583678   1.000000   1.000000
   98        6.614394      6.617822   1.000000   1.000000
   99        6.678619      6.682778   1.000000   1.000000
  100        6.707847      6.711847   1.000000   1.000000
  101        6.738875      6.762255   1.000000   1.000000
  102        6.801816      6.802266   1.000000   1.000000
  103        6.867660      6.876976   1.000000   1.000000
  104        6.889008      7.043811   1.000000   1.000000
  105        6.925278      7.097037   1.000000   1.000000
  106        6.976926      7.138414   1.000000   1.000000
  107        7.006679      7.233595   1.000000   1.000000
  108        7.054798      7.269131   1.000000   1.000000
  109        7.143263      7.316064   1.000000   1.000000
  110        7.157202      7.335376   1.000000   1.000000
  111        7.184007      7.445625   1.000000   1.000000
  112        7.221908      7.564972   1.000000   1.000000
  113        7.266114      7.574614   1.000000   1.000000
  114        7.313653      7.648236   1.000000   1.000000
  115        7.399389      7.728274   1.000000   1.000000
  116        7.443005      7.824200   1.000000   1.000000
  117        7.530286      8.020437   1.000000   1.000000
  118        7.545225      8.030464   1.000000   1.000000
  119        7.611784      8.187158   1.000000   1.000000
  120        7.719865      8.288024   1.000000   1.000000
  121        7.767212      8.405453   1.000000   1.000000
  122        7.828098      8.510455   1.000000   1.000000
  123        7.890522      8.651937   1.000000   1.000000
  124        8.115360      8.927275   1.000000   0.999974
  125        8.269451      9.142671   1.000000   0.019842
  126        8.292821      9.441069   1.000000   0.000000
  127        8.542396      9.525413   1.000000   0.000000
  128        8.815344      9.719438   1.000000   0.000000
  129        9.277499      9.818007   0.000000   0.000000
  130        9.371529      9.891826   0.000000   0.000000
  131        9.610477     10.012484   0.000000   0.000000
  132        9.779349     10.055341   0.000000   0.000000
  133        9.910769     10.178138   0.000000   0.000000
  134       10.030692     10.280021   0.000000   0.000000
  135       10.252974     10.425064   0.000000   0.000000
  136       10.344156     10.509551   0.000000   0.000000
  137       10.447602     10.577031   0.000000   0.000000
  138       10.524137     10.613341   0.000000   0.000000
  139       10.694735     10.705328   0.000000   0.000000
  140       10.751963     10.775866   0.000000   0.000000
  141       10.789168     11.024594   0.000000   0.000000
  142       10.841265     11.090023   0.000000   0.000000
  143       10.931092     11.134686   0.000000   0.000000
  144       11.048719     11.205709   0.000000   0.000000
  145       11.060655     11.358717   0.000000   0.000000
  146       11.196540     11.388885   0.000000   0.000000
  147       11.295532     11.511931   0.000000   0.000000
  148       11.388319     11.523350   0.000000   0.000000
  149       11.428206     11.630602   0.000000   0.000000
  150       11.509620     11.718003   0.000000   0.000000
  151       11.576624     11.750241   0.000000   0.000000
  152       11.599878     11.762977   0.000000   0.000000
  153       11.663721     11.904571   0.000000   0.000000
  154       11.773545     12.004748   0.000000   0.000000
  155       11.904060     12.054351   0.000000   0.000000
  156       12.014107     12.192002   0.000000   0.000000
  157       12.054275     12.247452   0.000000   0.000000
  158       12.198711     12.415900   0.000000   0.000000
  159       12.246655     12.508803   0.000000   0.000000
  160       12.294063     12.554358   0.000000   0.000000
  161       12.382075     12.578270   0.000000   0.000000
  162       12.412042     12.817162   0.000000   0.000000
  163       12.533485     12.929061   0.000000   0.000000
  164       12.642936     12.987223   0.000000   0.000000
  165       12.686429     13.053240   0.000000   0.000000
  166       12.749346     13.173194   0.000000   0.000000
  167       12.819297     13.215701   0.000000   0.000000
  168       13.047502     13.403186   0.000000   0.000000
  169       13.178737     13.462708   0.000000   0.000000
  170       13.254114     13.476178   0.000000   0.000000
  171       13.355884     13.640431   0.000000   0.000000
  172       13.476170     13.667836   0.000000   0.000000
  173       13.543434     13.725627   0.000000   0.000000
  174       13.633992     13.945351   0.000000   0.000000
  175       13.719816     13.985415   0.000000   0.000000
  176       13.805284     14.063092   0.000000   0.000000
 
  0.5000000E+00  0.0000000E+00  0.0000000E+00  0.1250000E+00
    1       -5.548758     -5.531589   1.000000   1.000000
    2       -5.489785     -5.479610   1.000000   1.000000
    3       -4.150078     -4.133979   1.000000   1.000000
    4       -4.067618     -4.072060   1.000000   1.000000
    5       -3.991281     -3.979599   1.000000   1.000000
    6       -3.937608     -3.931109   1.000000   1.000000
    7       -3.383768     -3.382990   1.000000   1.000000
    8       -3.308943     -3.305825   1.000000   1.000000
    9       -2.842940     -2.833313   1.000000   1.000000
   10       -2.812649     -2.804910   1.000000   1.000000
   11       -1.957235     -1.923546   1.000000   1.000000
   12       -1.877730     -1.874526   1.000000   1.000000
   13       -1.853307     -1.843786   1.000000   1.000000
   14       -1.829421     -1.834368   1.000000   1.000000
   15       -1.790483     -1.809294   1.000000   1.000000
   16       -1.771495     -1.783624   1.000000   1.000000
   17       -1.591414     -1.583471   1.000000   1.000000
   18       -1.525635     -1.534033   1.000000   1.000000
   19       -0.458353     -0.434111   1.000000   1.000000
   20       -0.406628     -0.388868   1.000000   1.000000
   21       -0.107797     -0.094175   1.000000   1.000000
   22       -0.031850     -0.022365   1.000000   1.000000
   23        0.295870      0.293125   1.000000   1.000000
   24        0.346603      0.359917   1.000000   1.000000
   25        0.667264      0.685707   1.000000   1.000000
   26        0.712828      0.740410   1.000000   1.000000
   27        1.279759      1.333446   1.000000   1.000000
   28        1.338034      1.364058   1.000000   1.000000
   29        1.357173      1.400173   1.000000   1.000000
   30        1.396164      1.420660   1.000000   1.000000
   31        1.737897      1.742123   1.000000   1.000000
   32        1.781337      1.782100   1.000000   1.000000
   33        2.072196      2.148759   1.000000   1.000000
   34        2.085048      2.172298   1.000000   1.000000
   35        2.301706      2.359900   1.000000   1.000000
   36        2.355731      2.405801   1.000000   1.000000
   37        2.712329      2.784310   1.000000   1.000000
   38        2.758986      2.793896   1.000000   1.000000
   39        3.069533      3.104661   1.000000   1.000000
   40        3.106929      3.144963   1.000000   1.000000
   41        3.150796      3.216009   1.000000   1.000000
   42        3.205960      3.252497   1.000000   1.000000
   43        3.283856      3.372976   1.000000   1.000000
   44        3.338614      3.388245   1.000000   1.000000
   45        3.380916      3.426137   1.000000   1.000000
   46        3.421099      3.442860   1.000000   1.000000
   47        3.688603      3.754698   1.000000   1.000000
   48        3.724882      3.804756   1.000000   1.000000
   49        3.867743      3.905900   1.000000   1.000000
   50        3.919034      3.935848   1.000000   1.000000
   51        3.967705      4.040684   1.000000   1.000000
   52        3.983989      4.064556   1.000000   1.000000
   53        4.055537      4.079171   1.000000   1.000000
   54        4.093221      4.124312   1.000000   1.000000
   55        4.202257      4.217106   1.000000   1.000000
   56        4.253765      4.340842   1.000000   1.000000
   57        4.353895      4.358722   1.000000   1.000000
   58        4.422532      4.438235   1.000000   1.000000
   59        4.436587      4.491550   1.000000   1.000000
   60        4.494470      4.503368   1.000000   1.000000
   61        4.550737      4.636398   1.000000   1.000000
   62        4.609197      4.683225   1.000000   1.000000
   63        4.757228      4.799129   1.000000   1.000000
   64        4.791467      4.841584   1.000000   1.000000
   65        4.833056      4.899681   1.000000   1.000000
   66        4.890428      4.906510   1.000000   1.000000
   67        4.917576      4.972194   1.000000   1.000000
   68        4.954529      5.024577   1.000000   1.000000
   69        5.049669      5.041667   1.000000   1.000000
   70        5.079880      5.079598   1.000000   1.000000
   71        5.102830      5.166749   1.000000   1.000000
   72        5.196158      5.191522   1.000000   1.000000
   73        5.217711      5.254095   1.000000   1.000000
   74        5.278599      5.296741   1.000000   1.000000
   75        5.341407      5.336650   1.000000   1.000000
   76        5.362863      5.383168   1.000000   1.000000
   77        5.431028      5.427341   1.000000   1.000000
   78        5.464708      5.523398   1.000000   1.000000
   79        5.493687      5.576685   1.000000   1.000000
   80        5.590882      5.589270   1.000000   1.000000
   81        5.674177      5.616353   1.000000   1.000000
   82        5.685717      5.674134   1.000000   1.000000
   83        5.734752      5.732745   1.000000   1.000000
   84        5.737383      5.810125   1.000000   1.000000
   85        5.828089      5.819055   1.000000   1.000000
   86        5.900374      5.861392   1.000000   1.000000
   87        5.958562      5.915732   1.000000   1.000000
   88        5.981737      5.959164   1.000000   1.000000
   89        5.987150      5.997761   1.000000   1.000000
   90        6.109686      6.103898   1.000000   1.000000
   91        6.148140      6.193755   1.000000   1.000000
   92        6.231021      6.245283   1.000000   1.000000
   93        6.288288      6.273805   1.000000   1.000000
   94        6.351138      6.363650   1.000000   1.000000
   95        6.390185      6.417234   1.000000   1.000000
   96        6.445734      6.454029   1.000000   1.000000
   97        6.522245      6.467156   1.000000   1.000000
   98        6.556544      6.500562   1.000000   1.000000
   99        6.586338      6.587931   1.000000   1.000000
  100        6.660430      6.630580   1.000000   1.000000
  101        6.707870      6.706979   1.000000   1.000000
  102        6.738730      6.760846   1.000000   1.000000
  103        6.779340      6.891431   1.000000   1.000000
  104        6.850209      7.011858   1.000000   1.000000
  105        6.949497      7.068005   1.000000   1.000000
  106        6.983718      7.096087   1.000000   1.000000
  107        7.034805      7.243590   1.000000   1.000000
  108        7.067537      7.285818   1.000000   1.000000
  109        7.111818      7.379156   1.000000   1.000000
  110        7.175286      7.447570   1.000000   1.000000
  111        7.252152      7.561054   1.000000   1.000000
  112        7.343746      7.638014   1.000000   1.000000
  113        7.375438      7.705914   1.000000   1.000000
  114        7.429411      7.723506   1.000000   1.000000
  115        7.455592      7.809051   1.000000   1.000000
  116        7.481324      7.822609   1.000000   1.000000
  117        7.530315      8.034285   1.000000   1.000000
  118        7.551397      8.100330   1.000000   1.000000
  119        7.647840      8.110548   1.000000   1.000000
  120        7.703197      8.156420   1.000000   1.000000
  121        7.921103      8.270887   1.000000   1.000000
  122        7.940884      8.391922   1.000000   1.000000
  123        7.995434      8.569274   1.000000   1.000000
  124        8.009983      8.943773   1.000000   0.999822
  125        8.068937      9.490148   1.000000   0.000000
  126        8.237484      9.684338   1.000000   0.000000
  127        8.760298      9.777346   1.000000   0.000000
  128        8.992095      9.824395   0.986082   0.000000
  129        9.341853      9.888923   0.000000   0.000000
  130        9.681368      9.993320   0.000000   0.000000
  131        9.723131     10.008851   0.000000   0.000000
  132        9.953602     10.174786   0.000000   0.000000
  133       10.088050     10.298585   0.000000   0.000000
  134       10.200513     10.317701   0.000000   0.000000
  135       10.312069     10.579155   0.000000   0.000000
  136       10.342625     10.642802   0.000000   0.000000
  137       10.523027     10.797035   0.000000   0.000000
  138       10.683209     10.857622   0.000000   0.000000
  139       10.813885     10.995183   0.000000   0.000000
  140       10.844380     11.039002   0.000000   0.000000
  141       10.908727     11.047405   0.000000   0.000000
  142       10.958993     11.161627   0.000000   0.000000
  143       11.053174     11.253862   0.000000   0.000000
  144       11.130393     11.301447   0.000000   0.000000
  145       11.272124     11.433485   0.000000   0.000000
  146       11.324530     11.546989   0.000000   0.000000
  147       11.388966     11.644769   0.000000   0.000000
  148       11.399896     11.694695   0.000000   0.000000
  149       11.473680     11.800107   0.000000   0.000000
  150       11.506189     11.807673   0.000000   0.000000
  151       11.573141     11.894457   0.000000   0.000000
  152       11.717664     12.010775   0.000000   0.000000
  153       11.775009     12.028508   0.000000   0.000000
  154       11.941680     12.175716   0.000000   0.000000
  155       12.012796     12.248210   0.000000   0.000000
  156       12.141659     12.345995   0.000000   0.000000
  157       12.215005     12.447636   0.000000   0.000000
  158       12.235774     12.541547   0.000000   0.000000
  159       12.336169     12.629009   0.000000   0.000000
  160       12.349337     12.741807   0.000000   0.000000
  161       12.759296     12.888765   0.000000   0.000000
  162       12.886990     13.007121   0.000000   0.000000
  163       12.917398     13.095430   0.000000   0.000000
  164       12.938327     13.190333   0.000000   0.000000
  165       12.962095     13.274261   0.000000   0.000000
  166       13.057578     13.282603   0.000000   0.000000
  167       13.096302     13.366496   0.000000   0.000000
  168       13.141801     13.428239   0.000000   0.000000
  169       13.263297     13.506996   0.000000   0.000000
  170       13.276966     13.530265   0.000000   0.000000
  171       13.407356     13.630083   0.000000   0.000000
  172       13.508205     13.667985   0.000000   0.000000
  173       13.554982     13.744228   0.000000   0.000000
  174       13.619352     13.778052   0.000000   0.000000
  175       13.737727     13.874431   0.000000   0.000000
  176       13.880886     13.934921   0.000000   0.000000
 
  0.0000000E+00  0.5000000E+00  0.0000000E+00  0.1250000E+00
    1       -5.785723     -5.742100   1.000000   1.000000
    2       -5.686346     -5.704314   1.000000   1.000000
    3       -3.815712     -3.751024   1.000000   1.000000
    4       -3.615108     -3.687135   1.000000   1.000000
    5       -3.549741     -3.516070   1.000000   1.000000
    6       -3.504723     -3.503060   1.000000   1.000000
    7       -3.476936     -3.443345   1.000000   1.000000
    8       -3.360546     -3.403506   1.000000   1.000000
    9       -2.947339     -2.915264   1.000000   1.000000
   10       -2.864897     -2.861791   1.000000   1.000000
   11       -2.748606     -2.731260   1.000000   1.000000
   12       -2.627640     -2.651457   1.000000   1.000000
   13       -1.679422     -1.662410   1.000000   1.000000
   14       -1.646156     -1.613331   1.000000   1.000000
   15       -1.567612     -1.583693   1.000000   1.000000
   16       -1.515786     -1.542502   1.000000   1.000000
   17       -0.798394     -0.776693   1.000000   1.000000
   18       -0.726023     -0.715513   1.000000   1.000000
   19       -0.644049     -0.662130   1.000000   1.000000
   20       -0.588266     -0.575933   1.000000   1.000000
   21       -0.494345     -0.511208   1.000000   1.000000
   22       -0.479475     -0.444366   1.000000   1.000000
   23       -0.181312     -0.169363   1.000000   1.000000
   24       -0.131616     -0.121790   1.000000   1.000000
   25        0.867742      0.853037   1.000000   1.000000
   26        0.913914      0.912778   1.000000   1.000000
   27        0.960134      0.983099   1.000000   1.000000
   28        0.972531      1.034977   1.000000   1.000000
   29        1.021809      1.067249   1.000000   1.000000
   30        1.121094      1.170321   1.000000   1.000000
   31        1.133771      1.177160   1.000000   1.000000
   32        1.173050      1.229531   1.000000   1.000000
   33        1.231848      1.248938   1.000000   1.000000
   34        1.304321      1.419463   1.000000   1.000000
   35        2.506615      2.508752   1.000000   1.000000
   36        2.539934      2.607122   1.000000   1.000000
   37        3.048722      3.097503   1.000000   1.000000
   38        3.096742      3.155066   1.000000   1.000000
   39        3.190826      3.224127   1.000000   1.000000
   40        3.254265      3.272139   1.000000   1.000000
   41        3.347332      3.349325   1.000000   1.000000
   42        3.400975      3.436210   1.000000   1.000000
   43        3.498043      3.575645   1.000000   1.000000
   44        3.513135      3.681790   1.000000   1.000000
   45        3.729887      3.796178   1.000000   1.000000
   46        3.859300      3.921426   1.000000   1.000000
   47        3.902189      3.988391   1.000000   1.000000
   48        4.023364      4.019390   1.000000   1.000000
   49        4.059879      4.120321   1.000000   1.000000
   50        4.098688      4.141120   1.000000   1.000000
   51        4.191983      4.210861   1.000000   1.000000
   52        4.220232      4.247859   1.000000   1.000000
   53        4.255077      4.307196   1.000000   1.000000
   54        4.310984      4.364453   1.000000   1.000000
   55        4.371073      4.422642   1.000000   1.000000
   56        4.406142      4.460608   1.000000   1.000000
   57        4.435616      4.506251   1.000000   1.000000
   58        4.498069      4.569124   1.000000   1.000000
   59        4.563313      4.671124   1.000000   1.000000
   60        4.609849      4.699906   1.000000   1.000000
   61        4.630665      4.739024   1.000000   1.000000
   62        4.739707      4.793996   1.000000   1.000000
   63        4.823051      4.854639   1.000000   1.000000
   64        4.851669      4.914711   1.000000   1.000000
   65        4.905366      4.965786   1.000000   1.000000
   66        5.003360      4.999565   1.000000   1.000000
   67        5.031170      5.050430   1.000000   1.000000
   68        5.106028      5.132477   1.000000   1.000000
   69        5.138606      5.188461   1.000000   1.000000
   70        5.187820      5.217879   1.000000   1.000000
   71        5.270175      5.238933   1.000000   1.000000
   72        5.280747      5.273509   1.000000   1.000000
   73        5.352111      5.334635   1.000000   1.000000
   74        5.394962      5.372617   1.000000   1.000000
   75        5.415538      5.390596   1.000000   1.000000
   76        5.454414      5.428735   1.000000   1.000000
   77        5.504293      5.469622   1.000000   1.000000
   78        5.555515      5.594686   1.000000   1.000000
   79        5.563075      5.614768   1.000000   1.000000
   80        5.580115      5.667594   1.000000   1.000000
   81        5.663193      5.690042   1.000000   1.000000
   82        5.682663      5.704183   1.000000   1.000000
   83        5.705212      5.749595   1.000000   1.000000
   84        5.796528      5.771756   1.000000   1.000000
   85        5.836798      5.834252   1.000000   1.000000
   86        5.918071      5.882845   1.000000   1.000000
   87        5.945029      5.981351   1.000000   1.000000
   88        6.014574      6.001584   1.000000   1.000000
   89        6.042554      6.081518   1.000000   1.000000
   90        6.156582      6.119965   1.000000   1.000000
   91        6.191582      6.180383   1.000000   1.000000
   92        6.252630      6.227684   1.000000   1.000000
   93        6.289775      6.262728   1.000000   1.000000
   94        6.331744      6.311944   1.000000   1.000000
   95        6.352182      6.345303   1.000000   1.000000
   96        6.427370      6.356817   1.000000   1.000000
   97        6.448529      6.479617   1.000000   1.000000
   98        6.520568      6.546041   1.000000   1.000000
   99        6.554483      6.593437   1.000000   1.000000
  100        6.559111      6.616015   1.000000   1.000000
  101        6.656687      6.678581   1.000000   1.000000
  102        6.704660      6.705751   1.000000   1.000000
  103        6.736109      6.765783   1.000000   1.000000
  104        6.810442      6.871458   1.000000   1.000000
  105        6.882754      6.887936   1.000000   1.000000
  106        6.970824      7.030296   1.000000   1.000000
  107        7.010233      7.081403   1.000000   1.000000
  108        7.035328      7.170724   1.000000   1.000000
  109        7.051532      7.246796   1.000000   1.000000
  110        7.131648      7.284424   1.000000   1.000000
  111        7.156586      7.369961   1.000000   1.000000
  112        7.194943      7.444570   1.000000   1.000000
  113        7.278182      7.554659   1.000000   1.000000
  114        7.286320      7.673196   1.000000   1.000000
  115        7.351497      7.758557   1.000000   1.000000
  116        7.409378      7.823882   1.000000   1.000000
  117        7.503876      7.926868   1.000000   1.000000
  118        7.550517      8.031802   1.000000   1.000000
  119        7.608277      8.158271   1.000000   1.000000
  120        7.724126      8.288282   1.000000   1.000000
  121        7.795687      8.386226   1.000000   1.000000
  122        7.896359      8.522786   1.000000   1.000000
  123        7.974444      8.684792   1.000000   1.000000
  124        8.004342      8.886491   1.000000   1.000000
  125        8.034923      9.286060   1.000000   0.000000
  126        8.111961      9.369163   1.000000   0.000000
  127        8.520194      9.608918   1.000000   0.000000
  128        8.818863      9.658580   1.000000   0.000000
  129        9.270365      9.800219   0.000000   0.000000
  130        9.433879      9.876725   0.000000   0.000000
  131        9.629357     10.087055   0.000000   0.000000
  132        9.788020     10.154587   0.000000   0.000000
  133        9.917632     10.190708   0.000000   0.000000
  134       10.218799     10.264727   0.000000   0.000000
  135       10.299169     10.325217   0.000000   0.000000
  136       10.331968     10.394464   0.000000   0.000000
  137       10.430071     10.462552   0.000000   0.000000
  138       10.546571     10.538349   0.000000   0.000000
  139       10.624503     10.628174   0.000000   0.000000
  140       10.716864     10.798733   0.000000   0.000000
  141       10.739211     10.933822   0.000000   0.000000
  142       10.925642     11.110550   0.000000   0.000000
  143       10.937177     11.158148   0.000000   0.000000
  144       11.034892     11.289763   0.000000   0.000000
  145       11.109091     11.387604   0.000000   0.000000
  146       11.166677     11.479356   0.000000   0.000000
  147       11.210003     11.519657   0.000000   0.000000
  148       11.257611     11.545731   0.000000   0.000000
  149       11.341798     11.684572   0.000000   0.000000
  150       11.451463     11.742386   0.000000   0.000000
  151       11.511333     11.797669   0.000000   0.000000
  152       11.618287     11.851001   0.000000   0.000000
  153       11.719021     11.983838   0.000000   0.000000
  154       11.745392     12.076045   0.000000   0.000000
  155       11.894579     12.127233   0.000000   0.000000
  156       12.034339     12.255293   0.000000   0.000000
  157       12.083742     12.455543   0.000000   0.000000
  158       12.197988     12.579800   0.000000   0.000000