unknown system                          
           1
     7.873847    0.000000    0.000000
     0.000000   10.075995    0.000000
     0.000000    0.000000    7.869546
   Si   Cr   Fe   Co   Ni
  32   4   4   4   4
Direct configuration=     1
   0.45217120  0.12553289  0.77874248
   0.54822236  0.37385564  0.27932496
   0.45515167  0.37486379  0.73017235
   0.53178953  0.12709202  0.22886534
   0.78027362  0.36878109  0.04311525
   0.73352388  0.63064188  0.54924148
   0.27006146  0.63247771  0.45612802
   0.22387395  0.37089685  0.95944435
   0.22551930  0.62815787  0.95919591
   0.26666716  0.37074213  0.46050510
   0.73823871  0.37297376  0.54630646
   0.78001282  0.62920973  0.04240389
   0.26854373  0.87082617  0.04234628
   0.22805019  0.12493737  0.54233545
   0.77418654  0.12756888  0.45400399
   0.72928886  0.87007170  0.94701665
   0.72830019  0.13042578  0.94671570
   0.77337022  0.87199158  0.45536195
   0.22855843  0.87430036  0.54348357
   0.26945902  0.12854418  0.04203881
   0.53374239  0.87326263  0.22891188
   0.46045268  0.62858295  0.72735662
   0.54410159  0.62803228  0.27830835
   0.45155428  0.87542150  0.77405893
   0.04695362  0.62808827  0.22969881
   0.95497257  0.87541860  0.72928756
   0.03661704  0.87254772  0.26638388
   0.95981316  0.62864915  0.76766408
   0.04419897  0.37125071  0.23042312
   0.95498432  0.12446695  0.72867818
   0.03785895  0.12595646  0.26541331
   0.96319866  0.37078937  0.76604064
   0.69672970  0.50011092  0.80488995
   0.30739995  0.50030875  0.20112577
   0.68983864  0.99782104  0.68931495
   0.50070785  0.28640820  0.00530282
   0.99984726  0.27072250  0.49443299
   0.19323843  0.99674069  0.80698152
   0.00374375  0.77895951  0.99738355
   0.00379100  0.21896221  0.99746420
   0.50380612  0.78237502  0.50372044
   0.50108608  0.71669818  0.00327706
   0.00012856  0.72769275  0.49643354
   0.29263910  0.99500395  0.29916727
   0.50582876  0.21671709  0.50827427
   0.19858876  0.50421495  0.69444450
   0.81083124  0.50424540  0.31103629
   0.79808373  0.99666086  0.18777754
