unknown system                          
           1
     7.769381    0.000000    0.000000
     0.000000    9.873518    0.000000
     0.000000    0.000000    7.814065
   Fe   Si
  16  32
Direct configuration=     1
   0.19254318  0.00000000  0.81230772
   0.30745682  0.00000000  0.31230772
   0.69254318  0.00000000  0.68769228
   0.80745682  0.00000000  0.18769228
   0.50000000  0.78344489  0.50000000
   0.50000000  0.71655511  0.00000000
   0.50000000  0.21655511  0.50000000
   0.50000000  0.28344489  0.00000000
   0.69254318  0.50000000  0.81230772
   0.80745682  0.50000000  0.31230772
   0.19254318  0.50000000  0.68769228
   0.30745682  0.50000000  0.18769228
   0.00000000  0.28344489  0.50000000
   0.00000000  0.21655511  0.00000000
   0.00000000  0.71655511  0.50000000
   0.00000000  0.78344489  0.00000000
   0.54480521  0.87347171  0.22686988
   0.45519479  0.62652829  0.72686988
   0.54480521  0.62652829  0.27313012
   0.45519479  0.87347171  0.77313012
   0.45519479  0.12652829  0.77313012
   0.54480521  0.37347171  0.27313012
   0.45519479  0.37347171  0.72686988
   0.54480521  0.12652829  0.22686988
   0.27370097  0.87185564  0.04975498
   0.22629903  0.12814436  0.54975498
   0.77370097  0.12814436  0.45024502
   0.72629903  0.87185564  0.95024502
   0.72629903  0.12814436  0.95024502
   0.77370097  0.87185564  0.45024502
   0.22629903  0.87185564  0.54975498
   0.27370097  0.12814436  0.04975498
   0.04480521  0.37347171  0.22686988
   0.95519479  0.12652829  0.72686988
   0.04480521  0.12652829  0.27313012
   0.95519479  0.37347171  0.77313012
   0.95519479  0.62652829  0.77313012
   0.04480521  0.87347171  0.27313012
   0.95519479  0.87347171  0.72686988
   0.04480521  0.62652829  0.22686988
   0.77370097  0.37185564  0.04975498
   0.72629903  0.62814436  0.54975498
   0.27370097  0.62814436  0.45024502
   0.22629903  0.37185564  0.95024502
   0.22629903  0.62814436  0.95024502
   0.27370097  0.37185564  0.45024502
   0.72629903  0.37185564  0.54975498
   0.77370097  0.62814436  0.04975498
