unknown system                          
           1
     7.872599    0.000000    0.000000
     0.000000    9.960173    0.000000
     0.000000    0.000000    7.931812
   Si   Cr   Mn   Fe   Ni
  32   3   5   5   3
Direct configuration=     1
   0.46172827  0.12959212  0.77443017
   0.55385607  0.37265383  0.27902530
   0.45380267  0.37602140  0.72459884
   0.54750201  0.12836741  0.22772668
   0.77606603  0.37299026  0.05191852
   0.72822544  0.62807245  0.55344215
   0.27777682  0.62834967  0.45127741
   0.22188769  0.37184344  0.94340452
   0.22054019  0.62832452  0.94429701
   0.27718055  0.37136494  0.45142078
   0.72695750  0.37194480  0.55329106
   0.77530547  0.62655247  0.05124003
   0.27276098  0.86992979  0.04655864
   0.22528211  0.13251972  0.54789699
   0.77341006  0.12976205  0.44708829
   0.72699777  0.87173031  0.94560849
   0.72774902  0.12759996  0.94631111
   0.77392389  0.86915438  0.44766852
   0.22646298  0.86768950  0.54915838
   0.27452831  0.13134865  0.04548996
   0.54696270  0.87214254  0.22881815
   0.45311952  0.62421170  0.72505493
   0.55340284  0.62713388  0.27935023
   0.46066379  0.87118635  0.77357976
   0.04090383  0.62742921  0.22747234
   0.95079714  0.87092183  0.72525116
   0.04211535  0.87122360  0.27597440
   0.94988473  0.62618832  0.77500415
   0.95068814  0.37409467  0.77546008
   0.04069338  0.12839656  0.27492255
   0.94969711  0.12899403  0.72535094
   0.03940481  0.37225943  0.22644822
   0.81142585  0.99875955  0.18216062
   0.49930576  0.28952587  0.00165473
   0.49756775  0.71136730  0.00236444
   0.18414321  0.50119238  0.68085302
   0.00478984  0.71504955  0.50083071
   0.68956483  0.99988932  0.67847343
   0.00201142  0.21583669  0.00143459
   0.49913968  0.21560059  0.50305270
   0.00307571  0.28463221  0.50017903
   0.81046083  0.50086597  0.31755301
   0.69104561  0.50107163  0.81324735
   0.00060825  0.78337330  0.00172686
   0.49948046  0.78256689  0.50302485
   0.18573004  0.99985813  0.81449095
   0.31013559  0.99974593  0.31986570
   0.31123803  0.50067092  0.18454825
