unknown system                          
           1
     7.915483    0.000000    0.000000
     0.000000   10.591093    0.000000
     0.000000    0.000000    7.987428
   Si   Ti   Cr   Fe   Ni
  32   4   4   4   4
Direct configuration=     1
   0.46941367  0.11687000  0.75535316
   0.52664299  0.37365895  0.24950929
   0.45981152  0.33926505  0.72719360
   0.55134299  0.12408517  0.22641443
   0.78617787  0.39337691  0.07201922
   0.71184664  0.63328824  0.55940956
   0.27353660  0.61985139  0.45486680
   0.28728278  0.35361264  0.99222231
   0.21003947  0.65093521  0.96143961
   0.28184318  0.37468078  0.45028340
   0.69913957  0.39429589  0.55490544
   0.77764288  0.63898737  0.06086852
   0.26781300  0.87710110  0.03442876
   0.24078641  0.13266356  0.53206638
   0.76613670  0.10467671  0.45218163
   0.72348863  0.86242144  0.95118661
   0.73391645  0.09793937  0.93645747
   0.77441226  0.86266459  0.45022842
   0.22228452  0.87804372  0.54734696
   0.29490298  0.12362850  0.04018074
   0.54694313  0.87377954  0.21833421
   0.43494880  0.65488325  0.71715201
   0.54172778  0.62897989  0.27599795
   0.44503328  0.87522795  0.77034002
   0.04893216  0.63437069  0.23001018
   0.96825291  0.86579840  0.73108851
   0.04173929  0.86794415  0.27568456
   0.94331135  0.62742111  0.78521293
   0.06442470  0.39639644  0.22224661
   0.94220684  0.11019682  0.71372510
   0.05749969  0.11191286  0.27112310
   0.91260849  0.39007524  0.76875300
   0.97906165  0.28456042  0.48787455
   0.00148836  0.22285047  0.99387763
   0.63317286  0.50749178  0.84563382
   0.20444421  0.48533188  0.72559885
   0.19436480  0.01134073  0.80181119
   0.99852497  0.71580292  0.50460773
   0.49324903  0.72220993  0.00373529
   0.49359944  0.79325790  0.48786267
   0.30674567  0.52119628  0.17547989
   0.99252136  0.79183512  0.00837404
   0.51367924  0.22417998  0.47969511
   0.55472533  0.25631683  0.99889299
   0.81142785  0.51287368  0.32635856
   0.81222750  0.99129167  0.18395846
   0.69027032  0.97728319  0.68370772
   0.31440787  0.99314431  0.30430104
