unknown system                          
           1
     7.918921    0.000000    0.000000
     0.000000    9.945480    0.000000
     0.000000    0.000000    7.939522
   Si   Cr   Mn   Fe   Ni
  32   4   4   4   4
Direct configuration=     1
   0.45472343  0.12646460  0.77382741
   0.54135633  0.36893621  0.28210194
   0.45167892  0.37396735  0.72487590
   0.55261936  0.12517298  0.22765417
   0.77893619  0.37029531  0.03881876
   0.72563780  0.62789863  0.55133798
   0.27256340  0.62544947  0.45556316
   0.22258179  0.36834102  0.94175967
   0.22580985  0.63337010  0.94361030
   0.27239517  0.36509634  0.46288772
   0.72696732  0.36807972  0.55423920
   0.77738101  0.63033751  0.04508471
   0.27986886  0.86914613  0.05541669
   0.22436333  0.12929837  0.55687309
   0.77525505  0.13010513  0.44651693
   0.72503659  0.87066054  0.94771501
   0.72679052  0.12628643  0.95156734
   0.77291561  0.87886062  0.44540243
   0.22180423  0.87621664  0.55677361
   0.27596290  0.12691204  0.05616612
   0.55172994  0.87519205  0.21816600
   0.44689873  0.62517806  0.72852496
   0.54589771  0.62712950  0.26891162
   0.45439848  0.87451760  0.77908461
   0.04227912  0.62863797  0.22009573
   0.94490049  0.87645287  0.72955962
   0.05349416  0.87663214  0.26827020
   0.95480535  0.62711774  0.77477480
   0.04017014  0.36816787  0.22423415
   0.95086474  0.12751151  0.72359475
   0.04659440  0.12526650  0.27410957
   0.95440293  0.37401450  0.76900375
   0.68868779  0.50659981  0.80955740
   0.18501041  0.99521991  0.81938879
   0.31559479  0.99605702  0.32198068
   0.50036855  0.29343171  0.00469753
   0.81467256  0.99316682  0.18667990
   0.50098054  0.21854492  0.50076528
   0.50358798  0.71154291  0.99968810
   0.00095105  0.28726327  0.49597960
   0.18754972  0.50421347  0.68642815
   0.00073992  0.21858396  0.99869766
   0.00106256  0.77967788  0.99940947
   0.69095653  0.99651325  0.68421566
   0.81125022  0.50248705  0.31677833
   0.49939827  0.78287961  0.49716941
   0.30635823  0.50495492  0.18458218
   0.00174701  0.71215001  0.49745995
