unknown system                          
           1
    15.792974    0.000000    0.000000
     7.896487    9.976001    7.938364
     0.000000   -9.976001    7.938364
   Si   Cr   Mn   Fe   Ni
 128  16  16  16  16
Direct configuration=     1
   0.11056987  0.32596836  0.95070665
   0.61310651  0.32219911  0.95263467
   0.36338227  0.82284020  0.44845872
   0.86412611  0.82424693  0.45226990
   0.12188173  0.03621104  0.40950263
   0.61543802  0.04300690  0.41157331
   0.36973278  0.53865564  0.91040478
   0.86400099  0.54638156  0.91442962
   0.03222265  0.16474196  0.78965127
   0.53126853  0.16153236  0.79438543
   0.28146935  0.65993569  0.28953208
   0.78470992  0.65439106  0.28850199
   0.20700865  0.04693307  0.67437255
   0.70448109  0.04845431  0.68024513
   0.45931078  0.54685636  0.17976416
   0.95188141  0.55076499  0.17412416
   0.18476276  0.17719346  0.05151226
   0.68431408  0.17326540  0.04880495
   0.43659878  0.67708177  0.54795477
   0.93832605  0.67524936  0.55049728
   0.00135866  0.45090108  0.32116203
   0.49866002  0.45114340  0.32669477
   0.25145052  0.94623890  0.82185022
   0.74566729  0.95048203  0.82815483
   0.21429900  0.34205697  0.71148951
   0.71454308  0.34351518  0.71047227
   0.46634808  0.83442432  0.21518431
   0.96716954  0.84097547  0.21186844
   0.46771648  0.29235138  0.66122985
   0.21779074  0.78733632  0.15701112
   0.96839217  0.29197193  0.65720727
   0.72339578  0.78516844  0.16171562
   0.43401613  0.40998645  0.04129038
   0.18685001  0.90817821  0.53480505
   0.93004896  0.41611570  0.04488074
   0.67988692  0.91070705  0.54172382
   0.27966214  0.21308386  0.83934529
   0.03212704  0.71420263  0.33851163
   0.77666826  0.21366135  0.83987068
   0.53125418  0.70790653  0.33995134
   0.32077818  0.08496649  0.45526906
   0.06658630  0.58865576  0.96101459
   0.81953854  0.08667250  0.45854790
   0.56939924  0.58666214  0.96049241
   0.12916569  0.46461688  0.08848131
   0.63561124  0.45983738  0.08907487
   0.38517163  0.95615926  0.58489780
   0.88323948  0.95692486  0.58601520
   0.44346656  0.33948321  0.21441691
   0.19257499  0.84234563  0.70849578
   0.94166999  0.34249742  0.21343795
   0.68922978  0.84184850  0.71444159
   0.00798437  0.21180533  0.34036978
   0.50470963  0.21472363  0.34159108
   0.25776703  0.71403917  0.83812857
   0.75575848  0.71403977  0.84168805
   0.09208544  0.08483843  0.96117383
   0.59178082  0.08772465  0.96366704
   0.34294844  0.58914847  0.45979239
   0.84173675  0.59205290  0.46430395
   0.23999482  0.29582581  0.16049833
   0.74566482  0.28930014  0.16076313
   0.49463567  0.78696157  0.65859642
   0.99329528  0.78698949  0.65820367
   0.15644850  0.40951126  0.53938656
   0.65777633  0.41134742  0.53803108
   0.40669839  0.90883136  0.04294097
   0.90827860  0.90749810  0.03930616
   0.41055563  0.45954663  0.58892558
   0.15540650  0.95855349  0.08870098
   0.90561275  0.46499349  0.59363720
   0.65853498  0.96010704  0.08954489
   0.06422514  0.32371379  0.44981358
   0.56263195  0.32705959  0.45173266
   0.31450605  0.82004616  0.95173558
   0.81231286  0.82418304  0.95228771
   0.24528955  0.04579916  0.17687278
   0.74876058  0.04729512  0.17543557
   0.50093121  0.54780703  0.67611439
   0.99781741  0.54909854  0.67481086
   0.13952462  0.17623073  0.54669996
   0.64065146  0.17953757  0.54769724
   0.39330154  0.67535118  0.05008251
   0.88923926  0.67856540  0.05074561
   0.34154624  0.03909536  0.91290582
   0.09180097  0.54292825  0.41395100
   0.84077601  0.03631878  0.90789886
   0.59354441  0.53886795  0.41145134
   0.30741838  0.15904838  0.28777744
   0.05405658  0.66099592  0.78495547
   0.80799742  0.16367300  0.29210242
   0.55920030  0.65600804  0.78821635
   0.04704639  0.45190752  0.82125608
   0.55034280  0.44960404  0.82337511
   0.30028834  0.94870887  0.32355555
   0.80011360  0.95071246  0.32319293
   0.55962231  0.92501686  0.30117883
   0.80103162  0.43209600  0.79853167
   0.06093233  0.92478069  0.29826773
   0.30688438  0.42452924  0.79738555
   0.57986132  0.79692959  0.92629564
   0.82521690  0.30177456  0.42879038
   0.07428970  0.80264923  0.92575862
   0.32771309  0.29853110  0.42466201
   0.73635698  0.57539117  0.69963951
   0.98823734  0.07061053  0.20154211
   0.23882318  0.57470649  0.69817478
   0.48832746  0.07519597  0.20124467
   0.62645962  0.69461330  0.07505849
   0.87545418  0.20567066  0.57684417
   0.12365599  0.70230627  0.07353622
   0.37900162  0.20143006  0.57065053
   0.69137715  0.57185768  0.20083655
   0.93487980  0.07678662  0.69948896
   0.18531861  0.57594397  0.20126323
   0.44266194  0.07148822  0.69891003
   0.67430892  0.69831335  0.57314181
   0.92190996  0.20287035  0.07613622
   0.16777642  0.70463566  0.57155341
   0.42520409  0.20139099  0.07358588
   0.51726357  0.92438303  0.79783326
   0.76324724  0.42697691  0.30052717
   0.01351444  0.92485495  0.79716602
   0.26472394  0.42822848  0.29858748
   0.37100668  0.29889087  0.92529517
   0.12404963  0.80063187  0.42379732
   0.87036907  0.30412652  0.92759614
   0.62017242  0.79629828  0.42764005
   0.05214023  0.89764857  0.60491193
   0.81842319  0.85860360  0.64538773
   0.30217436  0.39601361  0.10508910
   0.92100312  0.84251986  0.84214134
   0.07651325  0.15829957  0.15427635
   0.57370122  0.35475633  0.14287075
   0.44404317  0.10491636  0.89089884
   0.82483186  0.66304210  0.66070381
   0.67126475  0.34448913  0.34123741
   0.23893804  0.83821765  0.33640315
   0.89037334  0.41017568  0.40970672
   0.04947693  0.09269779  0.59807664
   0.94859232  0.10526419  0.39799441
   0.67713533  0.14363023  0.35593525
   0.30419741  0.39328546  0.60602024
   0.92942353  0.64466018  0.35458257
   0.38503216  0.41088773  0.41174395
   0.11622080  0.58791685  0.59349216
   0.80250114  0.39370212  0.61313140
   0.05582996  0.88832223  0.10626770
   0.45354356  0.90588339  0.40364884
   0.20017767  0.40561414  0.90581035
   0.79526767  0.59735171  0.09371278
   0.07278137  0.35565634  0.13788166
   0.42973810  0.63913617  0.85902144
   0.32429599  0.85796402  0.64285046
   0.82006231  0.85855004  0.14368712
   0.57670345  0.15489362  0.15933326
   0.14491693  0.90408246  0.90386509
   0.07288011  0.35648882  0.64032135
   0.57068253  0.35819975  0.64429397
   0.67748521  0.14296400  0.85878552
   0.69411277  0.61045457  0.89467496
   0.18347656  0.13990370  0.35545434
   0.42668148  0.64199440  0.35816493
   0.32324208  0.85586173  0.13950492
   0.01796242  0.65865725  0.15448412
   0.51808610  0.65555014  0.15628422
   0.70237692  0.40402752  0.90644933
   0.92963039  0.64128829  0.85957625
   0.95111248  0.90664006  0.40672575
   0.44470236  0.10613514  0.38813039
   0.19772739  0.60664980  0.39176431
   0.69378422  0.61042446  0.39060831
   0.55176988  0.89206184  0.60724585
   0.80577997  0.39189962  0.10425909
   0.63747364  0.90604755  0.91152464
   0.60447959  0.59667541  0.59624501
   0.98023992  0.34643982  0.84325658
   0.73330818  0.84269439  0.34347039
   0.26898202  0.15751356  0.65399617
   0.48589760  0.34219165  0.84105196
   0.86283254  0.08907143  0.08755582
   0.29916626  0.59060253  0.09088105
   0.54922846  0.09376967  0.59291623
   0.55338580  0.89101068  0.10775905
   0.17969703  0.14014597  0.85955972
   0.19845864  0.60489679  0.89227602
   0.94349383  0.11002710  0.89282515
   0.17540933  0.33856164  0.33844782
   0.32861777  0.65999969  0.65860143
   0.42458057  0.83967130  0.84434088
   0.75995247  0.16205216  0.66251693
   0.36102317  0.08995619  0.09219817
