unknown system                          
           1
     7.907441    0.000000    0.000000
     0.000000    9.958802    0.000000
     0.000000    0.000000    7.941422
   Si   Cr   Mn   Fe   Ni
  32   4   4   4   4
Direct configuration=     1
   0.45606335  0.12511965  0.77523849
   0.55564292  0.37510957  0.27639386
   0.44490358  0.37601005  0.72636980
   0.54906481  0.12328336  0.22761060
   0.77996207  0.37109337  0.05441330
   0.72117654  0.63273592  0.54376902
   0.27606919  0.62722737  0.44555518
   0.21773436  0.37222804  0.94628760
   0.22471267  0.62660952  0.94668680
   0.26727787  0.37518528  0.44664549
   0.72861202  0.37426489  0.55029650
   0.77866338  0.63114516  0.05811691
   0.27440945  0.87011283  0.05138968
   0.21926038  0.12964641  0.54400112
   0.77837599  0.12742573  0.45146284
   0.72950190  0.87291140  0.94844489
   0.72861589  0.12546849  0.94725034
   0.77074691  0.87402398  0.45294632
   0.22532312  0.87000276  0.53821611
   0.26659525  0.12882720  0.05662869
   0.54376648  0.87257935  0.22963099
   0.44486982  0.62770873  0.72269399
   0.54968617  0.62682694  0.27521567
   0.46510040  0.87121145  0.77261063
   0.05089572  0.62382673  0.22468645
   0.95181979  0.87258316  0.72591114
   0.04729870  0.87269828  0.27288855
   0.95981895  0.62736494  0.77885102
   0.04611526  0.37277563  0.22652590
   0.95010383  0.12949996  0.72739813
   0.04578529  0.12755590  0.27484566
   0.95859126  0.37237132  0.77540874
   0.99877480  0.71115393  0.50273228
   0.80993091  0.00296606  0.18696053
   0.31740560  0.49146289  0.18297409
   0.50214778  0.71351016  0.99666889
   0.99704744  0.21559749  0.99906232
   0.00085892  0.78574585  0.99881172
   0.19114831  0.49658885  0.68273586
   0.80952674  0.49636425  0.31469135
   0.69093458  0.00648819  0.68644798
   0.49635444  0.78677946  0.50327205
   0.31073904  0.00662143  0.31255818
   0.99688312  0.28323988  0.50411759
   0.68521566  0.49645344  0.81605099
   0.19065890  0.00622039  0.81429109
   0.49779850  0.28301428  0.99996881
   0.49801195  0.21236009  0.50426588
