unknown system                          
           1
     7.915497    0.000000    0.000000
     0.000000    9.859863    0.000000
     0.000000    0.000000    8.527167
   Si   Ti   Cr   Mn   Fe
  32   4   4   4   4
Direct configuration=     1
   0.46448566  0.12719914  0.75101686
   0.53314128  0.37410289  0.28131344
   0.46497841  0.36997763  0.72252733
   0.53375220  0.12837270  0.24699578
   0.76358276  0.36782337  0.09480633
   0.72983585  0.62856163  0.55622447
   0.27352644  0.62757272  0.45519030
   0.23690102  0.35813738  0.92588480
   0.24299160  0.60207062  0.90812851
   0.27257739  0.37081758  0.43987403
   0.72621164  0.37131637  0.55919088
   0.76260688  0.62529640  0.10026583
   0.27402314  0.89445268  0.10218457
   0.22513544  0.13396375  0.55534412
   0.77330225  0.13273526  0.44155758
   0.72406142  0.87208567  0.89971007
   0.72957390  0.12517194  0.89799849
   0.78110833  0.87063537  0.43243335
   0.22372106  0.87444633  0.55291717
   0.26571172  0.14018470  0.09693184
   0.53308019  0.87566676  0.24381194
   0.46157560  0.62770486  0.71541831
   0.52952421  0.62979686  0.28040743
   0.45305251  0.87313962  0.75885919
   0.03504120  0.62192020  0.25322966
   0.95606579  0.86954968  0.71319567
   0.04862780  0.87223563  0.28715582
   0.98265735  0.62080666  0.74687155
   0.97783321  0.36952079  0.75461178
   0.04140334  0.13045912  0.28553750
   0.95111757  0.12716068  0.70546037
   0.03602770  0.37446015  0.23778777
   0.80423773  0.00236627  0.14627942
   0.71016462  0.50269531  0.84709595
   0.19182005  0.01143431  0.85051210
   0.01660490  0.76595394  0.99924393
   0.29511512  0.50271193  0.16510124
   0.68691650  0.99321298  0.65126134
   0.47855379  0.73708734  0.00097368
   0.50199554  0.79162740  0.50168439
   0.79767731  0.49554135  0.33740660
   0.99955504  0.28579865  0.49614559
   0.99092189  0.23106640  0.99517663
   0.50276148  0.26117218  0.00266669
   0.30246103  0.00745195  0.33968278
   0.21227927  0.48773523  0.66659918
   0.00216770  0.71713343  0.49877564
   0.49953318  0.21966618  0.49855208
